<?xml version="1.0"?>
<VTKFile type="PolyData" version="0.1" byte_order="LittleEndian">
  <PolyData>
    <Piece NumberOfPoints="3192" NumberOfVerts="0" NumberOfLines="0" NumberOfStrips="1286" NumberOfPolys="0">
      <PointData Normals="Normals">
        <DataArray type="Float32" Name="Normals" NumberOfComponents="3" format="ascii" RangeMin="0.99999995801" RangeMax="1.0000000442">
          -0.10185972601 -0.34872993827 -0.93167161942 -0.046236138791 -0.63400655985 -0.77194422483
          -0.46012750268 -0.26535996795 -0.84727019072 0.27070263028 -0.34948518872 -0.89698392153
          -0.052213057876 0.045114420354 -0.99761641026 -0.84677475691 -0.52325183153 0.095812357962
          -0.84677475691 -0.52325183153 0.095812357962 -0.81136363745 -0.51120603085 0.2834738791
          0.54723411798 -0.082553058863 -0.83289843798 0.32054567337 0.21014709771 -0.9236279726
          -0.28714743257 -0.60790407658 -0.74026954174 -0.33581852913 -0.49799585342 -0.79951614141
          -0.39222043753 -0.57509940863 -0.71793019772 0.0024807758164 -0.72853928804 -0.68499952555
          0.39426034689 0.024648962542 -0.9186681509 0.39314287901 -0.32957273722 -0.85838246346
          -0.039694473147 -0.59311431646 -0.80413913727 0.59581798315 0.064929045737 -0.80049055815
          -0.44351577759 -0.25188550353 -0.86014384031 -0.51200520992 -0.42498880625 -0.74648189545
          -0.51792991161 -0.29552745819 -0.80275285244 0.39686861634 -0.22175115347 -0.89068609476
          0.23143795133 -0.57015621662 -0.78826290369 0.48097810149 -0.17616292834 -0.85885196924
          0.3270804286 -0.38991427422 -0.86080497503 -0.89293557405 0.3423743248 0.29231131077
          0.56745308638 -0.099863275886 -0.81732755899 -0.33831244707 -0.084347859025 -0.93724602461
          -0.49406951666 -0.15733899176 -0.8550671339 -0.24729387462 0.065075419843 -0.96675276756
          0.5689586401 -0.01100844983 -0.82229244709 -0.44141048193 -0.023941027001 -0.89698582888
          -0.67051589489 -0.080517686903 -0.73751294613 -0.67694967985 0.025036547333 -0.73560339212
          -0.22557961941 0.0034054205753 -0.97421878576 -0.10361765325 0.037764836103 -0.99390000105
          0.17020696402 0.13569237292 -0.97602111101 0.60317987204 -0.0195336584 -0.79736596346
          0.69348025322 0.042467992753 -0.71922290325 -0.5076109767 0.089066796005 -0.85697036982
          -0.73777031898 0.10728912055 -0.66647130251 -0.26954063773 0.07729781419 -0.95988172293
          -0.087792001665 0.073513559997 -0.99342250824 0.088215522468 0.044543106109 -0.99510496855
          0.45091184974 -0.16824367642 -0.87656861544 -0.55723255873 0.1615023315 -0.81449913979
          -0.47964268923 0.22781926394 -0.84737318754 -0.32691594958 0.15900491178 -0.93158113956
          -0.11767906696 0.16771909595 -0.97878593206 0.013789756224 0.17798213661 -0.98393708467
          0.15900455415 0.099371917546 -0.98226410151 0.64651215076 -0.52344816923 -0.55499911308
          0.35649210215 -0.12880517542 -0.9253770113 0.57198756933 -0.48791202903 -0.65937244892
          -0.35055524111 0.2448785156 -0.90396100283 -0.28607481718 0.3058693707 -0.90807771683
          -0.15128803253 0.23484615982 -0.96018707752 0.075657099485 0.36823305488 -0.92665010691
          0.098469994962 0.45117542148 -0.88698613644 0.1680547297 0.43708476424 -0.88358050585
          0.59619748592 -0.13249601424 -0.79182910919 0.41016739607 0.37402632833 -0.83178544044
          0.84089571238 0.078480184078 -0.53547662497 0.024827493355 0.38179045916 -0.9239153862
          -0.1814891398 0.45827180147 -0.87008541822 0.31942462921 0.63186198473 -0.70619994402
          0.27356764674 0.66355466843 -0.69631594419 0.19374883175 0.77596545219 -0.60028243065
          0.26473098993 0.81913524866 -0.50885653496 0.63858181238 0.61400681734 -0.46390613914
          0.14882738888 0.60716104507 -0.78051638603 -0.050247982144 -0.34841954708 -0.93599087
          -0.011332249269 -0.61204683781 -0.79074031115 -0.63284730911 -0.33882263303 -0.69620651007
          0.42453175783 -0.42968127131 -0.7969609499 -0.27264302969 -0.11633840948 -0.95505559444
          -0.74593234062 -0.11621295661 -0.65580451488 0.32575955987 -0.17795099318 -0.92855489254
          -0.41792669892 0.074904546142 -0.90538752079 -0.68797880411 0.10396697372 -0.71824508905
          0.10127254575 0.035752460361 -0.99421608448 0.23359678686 -0.49119713902 -0.83914119005
          -0.00039393868065 -0.54905647039 -0.83578515053 -0.065513990819 -0.57553762197 -0.81514680386
          0.54739499092 -0.25139960647 -0.7982211113 0.27747264504 -0.50929230452 -0.81463503838
          0.66935223341 -0.31724536419 -0.6718057394 -0.34935775399 0.12614421546 -0.92845934629
          -0.47905260324 -0.45227146149 -0.75230252743 0.076589614153 -0.62143671513 -0.77971178293
          0.18480707705 -0.43254044652 -0.88247102499 0.64623570442 -0.0093178665265 -0.76308101416
          0.80915439129 -0.013378441334 -0.58744376898 -0.47005286813 -0.2364102751 -0.85038840771
          -0.60015064478 -0.26750192046 -0.75383150578 -0.52145797014 0.65466421843 -0.5472625494
          0.54125118256 0.050148721784 -0.83936423063 0.63836711645 0.2497612685 -0.72808432579
          0.83309876919 0.24507184327 -0.4958691597 -0.70086568594 -0.10696244985 -0.70522785187
          -0.73916435242 0.025038726628 -0.67305952311 -0.82752376795 0.025288742036 -0.56086081266
          -0.61454790831 -0.23244707286 -0.7538562417 0.75231516361 0.11741735786 -0.64825540781
          0.77442234755 0.36863192916 -0.51417946815 0.76431244612 0.25733590126 -0.59127378464
          -0.83513200283 0.033257182688 -0.54904323816 -0.82210820913 0.03286428377 -0.56838196516
          0.9030624032 0.32401889563 -0.28193983436 -0.85559725761 0.045026767999 -0.51568001509
          0.87057507038 -0.099317386746 -0.48190775514 -0.62278461456 0.20253096521 -0.75572514534
          -0.75035637617 0.083835013211 -0.65569585562 0.77565526962 -0.39898777008 -0.48904773593
          0.68992543221 -0.59144431353 -0.41736853123 0.88777112961 -0.33600491285 -0.314583987
          -0.54175388813 0.17727702856 -0.82162982225 -0.6512773037 0.071173086762 -0.75549471378
          -0.46984407306 0.2701792419 -0.8403866291 0.91315573454 0.26174673438 -0.31246647239
          -0.40828597546 0.18757633865 -0.89337432384 -0.59320139885 0.15177373588 -0.79061800241
          -0.33312493563 0.34048727155 -0.87925887108 0.39154341817 0.77724772692 -0.49252384901
          0.39773449302 0.83417987823 -0.38203564286 0.34025657177 0.92443144321 -0.17219744623
          0.54930847883 0.81952601671 -0.16320937872 -0.32054316998 0.32688340545 -0.8890440464
          -0.46827575564 0.42260494828 -0.77596575022 -0.11343359202 0.45754665136 -0.8819205761
          0.01572320424 0.6531188488 -0.75709217787 0.39308488369 0.75709664822 -0.52181315422
          0.46785569191 0.79913425446 -0.37748581171 -0.10579345375 0.61015236378 -0.78518903255
          0.22966921329 0.73866355419 -0.63374143839 0.37537556887 0.79654037952 -0.47393730283
          -0.22985498607 -0.78271090984 -0.57838594913 -0.32842090726 -0.8627319932 -0.38449087739
          -0.7000451088 -0.50389665365 -0.50598913431 0.35544911027 -0.80502295494 -0.47496733069
          -0.84821534157 -0.28502038121 -0.44642373919 0.56910514832 -0.44295659661 -0.69275450706
          0.5725774765 -0.58365309238 -0.57576394081 0.70807337761 -0.61270737648 -0.35102945566
          -0.16413640976 -0.49598062038 -0.85267955065 -0.33353886008 -0.56002944708 -0.75836592913
          -0.31588047743 -0.51778668165 -0.79505753517 -0.064646869898 -0.59123402834 -0.80390495062
          0.39057520032 -0.10659867525 -0.91437834501 0.63846218586 -0.62746375799 -0.44570752978
          0.44961163402 -0.49248915911 -0.74518710375 0.43593716621 -0.82709777355 -0.35477891564
          0.10358782113 -0.5246194005 -0.84501129389 0.017596488819 -0.54278004169 -0.83969056606
          0.39707663655 -0.5282703042 -0.7505069375 0.40250664949 -0.50106608868 -0.76610779762
          0.69676536322 -0.35105118155 -0.62552464008 -0.70748925209 0.03820195049 -0.70569086075
          -0.85580277443 -0.21198759973 -0.47187161446 -0.81090843678 -0.084955342114 -0.5789732933
          -0.043702967465 -0.3516330719 -0.93511724472 0.044768221676 -0.82424581051 -0.56445962191
          -0.18638087809 -0.76619893312 -0.61498081684 -0.3004308641 -0.7815490365 -0.54673802853
          0.89999359846 -0.023708272725 -0.43525794148 -0.69976186752 0.070164382458 -0.710922122
          -0.78403788805 0.057466864586 -0.61804705858 0.92693448067 0.15973088145 -0.33952698112
          -0.78015810251 0.29732066393 -0.55041235685 0.90688723326 0.38845828176 -0.16326566041
          0.85584920645 0.44208231568 -0.26848715544 0.8556266427 0.48699551821 -0.17532360554
          0.9986358881 0.051861222833 0.0060682459734 -0.52072298527 -0.32078295946 0.79116737843
          0.73304700851 -0.5948356986 -0.32986754179 0.54195761681 -0.59821695089 -0.5902697444
          -0.51107865572 -0.063073553145 -0.85721665621 -0.67080497742 -0.21283505857 -0.71043783426
          -0.52332645655 -0.15182586014 -0.8384976387 0.66123700142 -0.50892055035 -0.55114924908
          -0.86679941416 0.0017205770127 -0.49865403771 0.78828817606 -0.52213346958 -0.3255431354
          0.75274026394 0.37563994527 -0.54062622786 -0.8235398531 -0.013715109788 -0.56709253788
          -0.86657220125 -0.057211015373 -0.49576157331 0.85593229532 0.37794739008 -0.35289618373
          -0.76766270399 0.035161178559 -0.63988882303 -0.80540502071 -0.027715563774 -0.59207648039
          -0.6608325839 0.24517723918 -0.70935773849 -0.70290243626 0.27860558033 -0.65445172787
          0.54109162092 0.79152715206 -0.28408569098 -0.50575357676 0.5073543191 -0.69771409035
          -0.48422548175 0.68985456228 -0.53816950321 -0.29944002628 0.65029025078 -0.69818210602
          0.083323642612 0.79524725676 -0.60053223372 0.40987312794 0.7949411273 -0.44729474187
          0.52858805656 0.7864831686 -0.31943526864 -0.2627351284 0.79366624355 -0.54869318008
          -0.029829608276 0.8512147069 -0.52396923304 0.34725177288 0.83312791586 -0.43048116565
          -0.29496979713 -0.78453683853 -0.54543083906 -0.77602541447 -0.44471046329 -0.44723281264
          0.655834198 -0.68260467052 -0.32238540053 0.43358895183 -0.75555199385 -0.49106189609
          0.10979026556 -0.60765528679 -0.78657561541 0.1565862 -0.63812696934 -0.75383996964
          -0.0098343510181 -0.58258718252 -0.81270873547 0.37759643793 -0.56956100464 -0.73008298874
          0.28695508838 -0.6481320858 -0.70539462566 0.50824743509 -0.58471798897 -0.63228905201
          -0.5548119545 -0.53116947412 -0.64034575224 -0.5768828392 -0.44065377116 -0.6877720952
          -0.21723793447 -0.54653418064 -0.80876946449 0.18128329515 -0.55887019634 -0.80919742584
          0.35793495178 -0.54028308392 -0.76156204939 0.59102910757 -0.47349277139 -0.65306138992
          0.60667896271 -0.79024916887 -0.086295157671 -0.66001290083 -0.63133400679 -0.40718585253
          0.88239061832 -0.10938119143 -0.45762714744 0.70691251755 -0.35843211412 -0.60975492001
          0.90046018362 -0.14731569588 -0.40923041105 -0.91629809141 -0.23119615018 -0.32702621818
          -0.11646086723 -0.97452998161 -0.19164599478 0.9475467205 0.17726376653 -0.26595640182
          0.96122169495 0.082735031843 -0.26307359338 -0.84976863861 -0.017266167328 -0.52687299252
          -0.99771606922 -0.038998119533 -0.055152509362 -0.90365999937 0.34357708693 -0.25564306974
          0.95646047592 0.21252396703 -0.20004229248 -0.65515381098 0.64452815056 -0.39415347576
          -0.90375584364 0.25449466705 -0.34417697787 0.79188960791 0.60634547472 0.072498209774
          0.89548826218 0.44361531734 0.036140922457 0.7766276598 0.5881794095 -0.22559796274
          0.79415088892 0.59542572498 -0.12162460387 0.81784361601 0.57539439201 -0.0072861225344
          0.96206122637 -0.14246250689 -0.23268568516 -0.1673091352 -0.74064058065 -0.65073740482
          -0.048652112484 -0.76960271597 -0.63666677475 0.44572463632 -0.70725697279 -0.54874140024
          0.65331232548 -0.68364447355 -0.32528948784 0.30292028189 -0.82029724121 -0.48513066769
          -0.11118756235 -0.45210492611 -0.88500761986 0.030452502891 -0.79828107357 -0.60151469707
          0.83135420084 -0.12916173041 -0.54052513838 0.66292023659 0.36194884777 -0.65538525581
          0.16840563715 0.016079626977 -0.98558664322 -0.92006725073 -0.079842537642 -0.38353809714
          -0.86857062578 -0.17538873851 -0.46349090338 -0.9093734622 -0.10913602263 -0.40140911937
          0.41623753309 0.89135199785 -0.17954933643 0.20141881704 0.97457450628 -0.098157726228
          -0.82248753309 0.028876274824 -0.56804972887 -0.86887353659 0.10247275978 -0.4843120575
          0.60522693396 0.76716679335 -0.21249818802 0.48399487138 0.83390057087 -0.26525229216
          0.36846029758 0.86410832405 -0.34286117554 -0.77938342094 0.32808887959 -0.53377819061
          -0.59080678225 0.50492846966 -0.62928104401 -0.061943046749 0.85346931219 -0.51744878292
          0.020970547572 0.23142173886 -0.97262746096 0.14709849656 -0.30379232764 -0.94131410122
          -0.30924835801 -0.126707986 -0.94250226021 0.37072634697 0.13815259933 -0.91840940714
          -0.13046394289 0.51298630238 -0.84842455387 -0.067155227065 -0.57764607668 -0.8135202527
          -0.12025793642 -0.71413975954 -0.68959587812 -0.27527403831 -0.59792029858 -0.75280511379
          0.098508507013 -0.67919582129 -0.72731637955 -0.27702152729 -0.57747167349 -0.76797497272
          -0.25942385197 -0.69333136082 -0.67230266333 -0.57163965702 -0.44740265608 -0.68779283762
          -0.21356959641 -0.65390467644 -0.72580760717 0.043238788843 -0.69300621748 -0.71963381767
          -0.31749528646 -0.48182469606 -0.81672620773 -0.44407305121 -0.5622355938 -0.69763189554
          -0.42504251003 -0.42886799574 -0.79712677002 -0.086952261627 -0.53286737204 -0.84171950817
          0.19310623407 -0.56865924597 -0.7995852828 0.17030087113 -0.53205293417 -0.82940775156
          0.34234791994 -0.52179902792 -0.78136014938 -0.6004793644 -0.42087942362 -0.67991542816
          -0.50996696949 -0.27721893787 -0.81429928541 -0.47971913218 -0.38123807311 -0.79027026892
          -0.37169405818 -0.45309653878 -0.81027591228 -0.10255464911 -0.54743409157 -0.83054107428
          0.44031885266 -0.58575212955 -0.6804510951 0.6387976408 -0.53427678347 -0.55361169577
          -0.83286577463 -0.25392836332 -0.49178749323 0.70001298189 -0.46859431267 -0.53888887167
          0.71526348591 -0.61190623045 -0.33759275079 0.74335390329 -0.42370679975 -0.51758819818
          0.77843755484 -0.34672281146 -0.52327650785 0.89388108253 -0.22440521419 -0.38809657097
          -0.87532144785 -0.13590617478 -0.46404948831 0.78231358528 -0.57639849186 -0.23611488938
          0.76799690723 -0.53673934937 -0.34941604733 -0.81590497494 -0.38069492579 -0.43516716361
          0.96212798357 0.055860169232 -0.266813308 -0.94440984726 -0.097327806056 -0.31403401494
          -0.054955314845 -0.99232202768 -0.11080135405 -0.82137179375 0.57034003735 0.0077891987748
          -0.98479384184 0.16646338999 -0.049709297717 -0.9772977829 0.20176844299 -0.064642056823
          0.87062102556 0.28067627549 -0.40402954817 -0.98628377914 -0.11444832385 -0.1189365834
          0.85096371174 0.21912112832 -0.47733286023 0.65902614594 0.28668069839 -0.6953407526
          0.63413238525 0.42439630628 -0.64634656906 -0.96628391743 -0.086276270449 -0.24259383976
          0.68888670206 -0.41111183167 -0.59701102972 0.51625692844 -0.21391649544 -0.82928794622
          0.277010113 -0.70507788658 -0.65278679132 0.62749189138 -0.55598288774 -0.54510265589
          -0.92832714319 -0.039549570531 -0.36965465546 0.32241669297 -0.69508677721 -0.64257442951
          0.0037595806643 -0.75029247999 -0.66109532118 0.73215508461 -0.30389627814 -0.6095867157
          0.70750361681 0.05061275512 -0.70489501953 0.70970076323 -0.1929975301 -0.67755204439
          -0.93850845098 0.045107088983 -0.34229707718 0.62198454142 0.040891885757 -0.78196102381
          0.31619814038 0.23734860122 -0.91852295399 -0.9379517436 -0.24872304499 -0.24162654579
          0.23390284181 0.89713835716 -0.37474286556 0.08168707788 0.81988132 -0.56667619944
          0.082784362137 0.82367008924 -0.56099408865 -0.27707508206 0.48922219872 -0.82697701454
          0.20627129078 0.17466773093 -0.9627789855 0.44008708 0.053544528782 -0.89635723829
          -0.84601265192 -0.20646397769 -0.49156409502 0.62122905254 0.6986733675 -0.35486617684
          0.44759592414 0.75873321295 -0.47326719761 0.30235078931 0.85163122416 -0.42814517021
          0.13426470757 0.76964610815 -0.62419378757 -0.095905534923 0.33595749736 -0.93698167801
          -0.27494013309 0.36370080709 -0.890016675 0.14220882952 0.33016553521 -0.93314915895
          0.37576705217 0.12843681872 -0.91777074337 0.30907711387 0.38115927577 -0.871314466
          0.48566710949 0.29675328732 -0.82223170996 -0.7376922369 0.11390196532 -0.66545963287
          0.66839301586 0.58073729277 -0.4647525847 0.65907973051 0.47358185053 -0.58423811197
          -0.076233781874 0.46162003279 -0.88379597664 -0.085873663425 0.57070857286 -0.81665015221
          0.18210943043 0.58470898867 -0.79053878784 0.39012748003 0.63495153189 -0.66681116819
          0.48374581337 0.60274547338 -0.63457691669 -0.21912682056 0.4139842093 -0.88351601362
          -0.63862395287 0.17613616586 -0.74908977747 0.16283871233 0.78512400389 -0.59754818678
          -0.14796902239 0.86451929808 -0.48032438755 -0.11041200906 0.47754070163 -0.87164443731
          -0.6753783226 0.4006138742 -0.61917096376 0.42851871252 0.41741386056 -0.80133473873
          0.12011005729 0.79111331701 -0.59976100922 -0.30391266942 0.3514058888 -0.88552302122
          -0.56586068869 0.39230275154 -0.72518980503 0.055575978011 0.32000166178 -0.94578552246
          0.46269220114 0.43175604939 -0.77427554131 -0.35949757695 -0.11614087969 -0.9258902669
          0.16398175061 -0.054892223328 -0.98493492603 0.26866906881 -0.26056849957 -0.92731922865
          0.50078332424 -0.017281161621 -0.86540013552 0.33009815216 -0.25912338495 -0.90768402815
          0.47088128328 -0.054474841803 -0.88051307201 -0.3458917439 0.54122704268 -0.76644122601
          0.13701556623 0.49421072006 -0.85847687721 -0.39687949419 0.11077063531 -0.91116219759
          -0.45061638951 -0.17280878127 -0.87583220005 -0.38431546092 0.18575067818 -0.90432202816
          0.10520361364 -0.36409652233 -0.92540043592 0.48044848442 0.072014160454 -0.87406134605
          0.59150564671 0.30936732888 -0.74458909035 0.60544276237 0.21631154418 -0.76592975855
          -0.36899057031 0.47677659988 -0.79782831669 -0.33507859707 0.64692598581 -0.68498837948
          -0.070662766695 0.75254428387 -0.65473949909 -0.17814143002 0.86775243282 -0.46397343278
          0.21714824438 0.62917178869 -0.74631726742 0.45146945119 0.41127505898 -0.79185110331
          0.050691377372 0.86460971832 -0.49988043308 -0.33062708378 -0.69927102327 -0.63380259275
          -0.24046102166 -0.91896653175 -0.31253641844 -0.53854829073 -0.65645068884 -0.52824068069
          -0.10181978345 -0.97417026758 -0.20155647397 0.36023253202 -0.64260643721 -0.67623180151
          0.19765390456 -0.91425973177 -0.35364112258 0.25044235587 -0.72710078955 -0.63922065496
          -0.1555570364 -0.78596735001 -0.59837889671 -0.31823569536 -0.68857729435 -0.65160369873
          0.28892225027 -0.63398379087 -0.71734827757 0.078693456948 -0.76447880268 -0.63982772827
          0.49087512493 -0.49362653494 -0.71789586544 0.29163110256 -0.65291279554 -0.69903945923
          0.50514322519 -0.49270260334 -0.70857214928 -0.68263882399 -0.39961725473 -0.61180901527
          -0.84191530943 -0.40305671096 -0.35878106952 -0.90790402889 -0.18238306046 -0.37742108107
          0.044548232108 -0.74845319986 -0.6616896987 0.38274624944 -0.60218381882 -0.70062822104
          0.2479403615 -0.67843127251 -0.69156098366 -0.29881829023 -0.55638027191 -0.77533775568
          -0.40240061283 -0.63201320171 -0.66229379177 -0.79471421242 -0.16050466895 -0.58537811041
          -0.95406627655 -0.087882660329 -0.28641617298 0.5820633769 -0.43387261033 -0.68771851063
          0.067636661232 -0.61010122299 -0.78943127394 -0.001908643404 -0.39204138517 -0.91994559765
          0.78164857626 -0.40829899907 -0.47150546312 0.70423316956 -0.44535371661 -0.55291563272
          0.86390811205 -0.27734786272 -0.4204056859 -0.83996236324 -0.11585120857 -0.53013366461
          -0.96536457539 -0.068555183709 -0.25173676014 0.50592571497 -0.31846833229 -0.80163401365
          -0.41873693466 -0.036014374346 -0.90739315748 0.94432133436 -0.029141318053 -0.32773154974
          -0.93238228559 -0.089596457779 -0.35019385815 0.46777015924 0.15726870298 -0.86974573135
          0.67240154743 -0.2810228765 -0.68476438522 -0.82076400518 0.49691900611 -0.28181183338
          -0.91884070635 -0.060086019337 -0.39002752304 -0.88433134556 0.10608620197 -0.4546468854
          0.58608150482 -0.7833532095 -0.20704166591 0.92083930969 0.035934962332 -0.38828289509
          -0.92887061834 0.25085109472 -0.27253088355 -0.83743900061 0.50399339199 -0.21139210463
          0.9152469635 0.14584058523 -0.37557086349 -0.88023978472 0.47112318873 -0.056752663106
          -0.97296869755 0.21682819724 -0.079482413828 0.73197710514 -0.084194846451 -0.67610704899
          0.13507336378 -0.6487492919 -0.74891889095 0.47794643044 -0.48707526922 -0.73097527027
          -0.9769538641 -0.15523537993 -0.14650313556 -0.93218493462 -0.24823361635 -0.26346030831
          0.35753387213 -0.071731723845 -0.93114125729 0.40018704534 -0.21866084635 -0.88996505737
          0.45542553067 -0.48271030188 -0.74804967642 0.18352253735 -0.50404191017 -0.84395569563
          0.036983016878 -0.59216153622 -0.80497014523 0.66466671228 -0.50143969059 -0.55387401581
          -0.87836927176 -0.14027506113 -0.45693585277 0.75534409285 -0.18129357696 -0.62975227833
          0.75646197796 -0.363253057 -0.54388648272 0.821813941 -0.35517051816 -0.4455062151
          -0.83723348379 -0.13633368909 -0.52957832813 -0.76980280876 -0.11559408158 -0.62772738934
          0.76189780235 -0.26405033469 -0.59142976999 -0.75689190626 0.16467688978 -0.63245248795
          0.61666440964 -0.038049589843 -0.7863060832 0.70218533278 -0.11776583642 -0.70218724012
          -0.34068566561 -0.42078256607 -0.8407587409 -0.50494599342 -0.26147165895 -0.82259476185
          -0.77237600088 -0.131000489 -0.62150961161 -0.70936608315 0.36819317937 -0.60102713108
          -0.92136341333 -0.38830658793 0.017534390092 -0.10698657483 -0.45301038027 -0.88506239653
          -0.92111366987 -0.16214610636 -0.35391837358 -0.089472703636 0.59598273039 -0.79799699783
          0.52865630388 0.06877540797 -0.84604519606 0.6010504961 0.10725566745 -0.79198139906
          0.69938212633 0.056261848658 -0.71253019571 -0.67635756731 -0.23960727453 -0.69651186466
          -0.89371567965 -0.013946818188 -0.44841691852 -0.56621897221 -0.61737108231 -0.5461217761
          0.59514933825 0.37481600046 -0.71085178852 0.39738306403 0.58738678694 -0.70502728224
          0.036998365074 0.72609841824 -0.68659466505 -0.18512323499 0.43340462446 -0.88198059797
          -0.28587016463 0.20342178643 -0.93642824888 -0.19462879002 0.35960173607 -0.91258215904
          0.601801157 0.3377148509 -0.72372925282 0.66565287113 0.31301829219 -0.67744064331
          -0.83600157499 -0.027490189299 -0.54803806543 -0.91720658541 -0.055721577257 -0.39449608326
          0.51731228828 0.13806499541 -0.84458631277 0.44922283292 -0.086433015764 -0.88922899961
          0.41963887215 0.085751622915 -0.90363150835 0.29687342048 0.82456690073 -0.48161768913
          0.39001083374 0.86896806955 -0.30460801721 0.44883820415 0.81914299726 -0.35714000463
          0.55858623981 0.69217503071 -0.45702853799 -0.81402510405 0.085675120354 -0.57447618246
          -0.83384108543 0.12243653089 -0.53825491667 0.36582604051 0.74512374401 -0.55763965845
          -0.38279283047 0.77353352308 -0.50508964062 -0.75564289093 0.22772735357 -0.614120543
          0.35576424003 -0.047830436379 -0.93335098028 0.27910000086 -0.22694158554 -0.9330598712
          0.14443959296 -0.18335261941 -0.97237801552 -0.11759267747 0.17747545242 -0.97707444429
          0.23355144262 0.46591976285 -0.85344743729 0.40342760086 0.79178190231 -0.45861488581
          0.50371205807 0.66228449345 -0.55466514826 0.31954884529 0.92560964823 -0.2028183043
          -0.74309015274 0.30389580131 -0.59620833397 -0.84874999523 0.36026015878 -0.38708668947
          0.52392810583 0.17510464787 -0.83356922865 -0.46147048473 -0.33301568031 -0.82228070498
          0.20665681362 -0.29685461521 -0.93229305744 0.34485331178 0.25569158792 -0.90316003561
          0.60014200211 0.26769810915 -0.75376874208 0.58997321129 0.6056202054 -0.53399980068
          -0.62986695766 0.48837807775 -0.60394901037 -0.3123858273 0.68402886391 -0.6591809988
          -0.48626738787 0.75881761312 -0.4332895577 -0.021841488779 0.48458996415 -0.8744686842
          -0.31678444147 0.818595469 -0.47911277413 -0.34895768762 0.70365357399 -0.61895084381
          -0.35308155417 0.79567235708 -0.49217772484 -0.29158890247 0.85147434473 -0.43585240841
          -0.28785741329 0.89477705956 -0.3413387239 0.38248947263 0.62013590336 -0.68493306637
          0.58715319633 0.39484903216 -0.7066437602 0.42393139005 0.60838121176 -0.67093551159
          0.61683809757 0.49928832054 -0.60845863819 -0.18445324898 0.92626410723 -0.32865154743
          -0.075272172689 0.91836464405 -0.38851061463 0.12970659137 0.82216948271 -0.55426847935
          0.2925491333 0.75539076328 -0.58634448051 -0.46631595492 -0.63871777058 -0.61203682423
          -0.6959990859 -0.6001277566 -0.39424848557 -0.87404125929 -0.32314932346 -0.36280354857
          0.13327649236 -0.6443529129 -0.75302505493 -0.022131597623 -0.79264312983 -0.60928404331
          0.38313668966 -0.76230216026 -0.52163368464 -0.27649226785 0.89903706312 -0.33953556418
          0.38615190983 0.802770257 -0.45436394215 -0.18598034978 -0.37821403146 -0.90684366226
          -0.4271491766 -0.71755933762 -0.5501382947 -0.50330263376 -0.18827265501 -0.84335035086
          0.35120776296 0.014691959135 -0.93618226051 -0.071487158537 -0.69547498226 -0.71498543024
          0.5913271904 -0.032245419919 -0.80578678846 0.10398714244 0.22250989079 -0.96936887503
          -0.27558848262 0.19635611773 -0.94100755453 0.7220017314 0.42741835117 -0.54408365488
          0.81412369013 0.44941884279 -0.36772999167 0.35712641478 0.39910966158 -0.84449523687
          -0.33321431279 -0.74954289198 -0.57197344303 -0.18953987956 -0.8164087534 -0.5454826951
          -0.25113043189 -0.88058358431 -0.40187808871 -0.07641454041 -0.8229586482 -0.56293863058
          -0.10341381282 -0.90534096956 -0.41190209985 0.11128989607 -0.77985751629 -0.61598438025
          -0.028648035601 -0.87596267462 -0.4815274477 0.3600397408 -0.60157555342 -0.71307659149
          0.13668976724 -0.80234712362 -0.58099478483 0.6099576354 -0.42801848054 -0.6668972373
          0.38297596574 -0.67920392752 -0.62610816956 0.67666453123 -0.54016590118 -0.50034576654
          -0.60533541441 -0.73173308372 -0.31326624751 0.030300274491 -0.88776999712 -0.45928889513
          -0.20553641021 -0.83981263638 0.50246345997 -0.26776561141 -0.69503909349 -0.66724973917
          -0.27291747928 -0.74650233984 -0.60683631897 0.75613385439 -0.30392491817 -0.57956123352
          0.8395742178 -0.22340710461 -0.49518120289 -0.88182461262 -0.44573697448 -0.15396054089
          -0.98968189955 -0.13124333322 -0.057488925755 0.018695432693 -0.72070121765 -0.6929937005
          -0.1650326997 -0.67879599333 -0.7155418992 -0.99988955259 -0.012698307633 0.007723829709
          0.91603517532 -0.13499358296 -0.3776986599 0.84043753147 -0.32829579711 -0.43114575744
          0.91171169281 -0.19805602729 -0.3599383235 0.95296663046 0.047057826072 -0.29939976335
          -0.94587826729 -0.32142788172 -0.044703040272 0.12665481865 0.45671162009 -0.8805527091
          0.9519250989 0.13166451454 -0.27659186721 -0.80442810059 -0.32070943713 -0.50004094839
          -0.91709852219 -0.32986032963 0.22388041019 -0.98793280125 0.037085302174 -0.1503777802
          0.94151449203 -0.08886449039 -0.32504400611 -0.73741036654 0.47526213527 -0.47994989157
          -0.80507725477 0.58317649364 -0.10842408985 0.77200806141 -0.14410588145 -0.61906141043
          0.77142000198 -0.35936424136 -0.52513670921 -0.835524261 0.5396925211 -0.10310768336
          -0.96893727779 0.20774787664 -0.13416931033 0.67103654146 -0.38628485799 -0.6328458786
          0.5049815774 -0.50314593315 -0.70131146908 0.71957653761 -0.34278547764 -0.60391038656
          -0.90963727236 -0.16123966873 -0.38283398747 -0.86282604933 -0.33480784297 -0.37872800231
          0.67809903622 -0.43985795975 -0.58881807327 -0.87755340338 -0.25685596466 -0.40487655997
          -0.83458429575 -0.29029023647 -0.46818870306 0.82979542017 -0.40607610345 -0.38280773163
          -0.76841008663 -0.25542509556 -0.5867741704 0.81481808424 -0.37170225382 -0.44486954808
          0.81905281544 -0.19854453206 -0.5382681489 0.8802164793 -0.27397966385 -0.38749727607
          -0.57434344292 0.044112637639 -0.81742507219 -0.73831641674 -0.11233159155 -0.66503417492
          0.82859021425 -0.012647666037 -0.559712708 0.91243845224 -0.070077717304 -0.4031688869
          -0.84915530682 0.11249684542 -0.51602298021 -0.52962332964 -0.17792989314 -0.82936125994
          0.82037323713 0.20048505068 -0.53553110361 0.9222099185 0.1338301301 -0.36279252172
          0.059416107833 0.44424122572 -0.89393484592 0.7185434103 0.52374249697 -0.45759057999